ITEM: TIMESTEP
1000
ITEM: NUMBER OF ATOMS
125
ITEM: BOX BOUNDS pp pp pp
0 5
0 5
0 5
ITEM: ATOMS id mol type xu yu zu 
1	1	1	0	0	0
2	2	1	1	0	0
3	3	1	2	0	0
4	4	1	3	0	0
5	5	1	4	0	0
6	6	1	0	1	0
7	7	1	1	1	0
8	8	1	2	1	0
9	9	1	3	1	0
10	10	1	4	1	0
11	11	1	0	2	0
12	12	1	1	2	0
13	13	1	2	2	0
14	14	1	3	2	0
15	15	1	4	2	0
16	16	1	0	3	0
17	17	1	1	3	0
18	18	1	2	3	0
19	19	1	3	3	0
20	20	1	4	3	0
21	21	1	0	4	0
22	22	1	1	4	0
23	23	1	2	4	0
24	24	1	3	4	0
25	25	1	4	4	0
26	26	1	0	0	1
27	27	1	1	0	1
28	28	1	2	0	1
29	29	1	3	0	1
30	30	1	4	0	1
31	31	1	0	1	1
32	32	1	1	1	1
33	33	1	2	1	1
34	34	1	3	1	1
35	35	1	4	1	1
36	36	1	0	2	1
37	37	1	1	2	1
38	38	1	2	2	1
39	39	1	3	2	1
40	40	1	4	2	1
41	41	1	0	3	1
42	42	1	1	3	1
43	43	1	2	3	1
44	44	1	3	3	1
45	45	1	4	3	1
46	46	1	0	4	1
47	47	1	1	4	1
48	48	1	2	4	1
49	49	1	3	4	1
50	50	1	4	4	1
51	51	1	0	0	2
52	52	1	1	0	2
53	53	1	2	0	2
54	54	1	3	0	2
55	55	1	4	0	2
56	56	1	0	1	2
57	57	1	1	1	2
58	58	1	2	1	2
59	59	1	3	1	2
60	60	1	4	1	2
61	61	1	0	2	2
62	62	1	1	2	2
63	63	2	2	2	2
64	64	1	3	2	2
65	65	1	4	2	2
66	66	1	0	3	2
67	67	1	1	3	2
68	68	1	2	3	2
69	69	1	3	3	2
70	70	1	4	3	2
71	71	1	0	4	2
72	72	1	1	4	2
73	73	1	2	4	2
74	74	1	3	4	2
75	75	1	4	4	2
76	76	1	0	0	3
77	77	1	1	0	3
78	78	1	2	0	3
79	79	1	3	0	3
80	80	1	4	0	3
81	81	1	0	1	3
82	82	1	1	1	3
83	83	1	2	1	3
84	84	1	3	1	3
85	85	1	4	1	3
86	86	1	0	2	3
87	87	1	1	2	3
88	88	1	2	2	3
89	89	1	3	2	3
90	90	1	4	2	3
91	91	1	0	3	3
92	92	1	1	3	3
93	93	1	2	3	3
94	94	1	3	3	3
95	95	1	4	3	3
96	96	1	0	4	3
97	97	1	1	4	3
98	98	1	2	4	3
99	99	1	3	4	3
100	100	1	4	4	3
101	101	1	0	0	4
102	102	1	1	0	4
103	103	1	2	0	4
104	104	1	3	0	4
105	105	1	4	0	4
106	106	1	0	1	4
107	107	1	1	1	4
108	108	1	2	1	4
109	109	1	3	1	4
110	110	1	4	1	4
111	111	1	0	2	4
112	112	1	1	2	4
113	113	1	2	2	4
114	114	1	3	2	4
115	115	1	4	2	4
116	116	1	0	3	4
117	117	1	1	3	4
118	118	1	2	3	4
119	119	1	3	3	4
120	120	1	4	3	4
121	121	1	0	4	4
122	122	1	1	4	4
123	123	1	2	4	4
124	124	1	3	4	4
125	125	1	4	4	4